    1C
    1UMyCAE CalculiX input deck: test1_Simulation_Case                  
    1UUSER                                                              
    1UDATE              25.may.2026                                     
    1UTIME              17:46:48                                        
    1UHOST                                                              
    1UPGM               CalculiX                                        
    1UVERSION           Version 2.23                             
    1UCOMPILETIME       Sun Oct 19 18:23:34 CEST 2025                    
    1UDIR                                                               
    1UDBN                                                               
    1UMAT    1STEEL                                                     
    2C                           111                                     1
 -1         1 0.00000E+00 0.00000E+00 0.00000E+00
 -1         2 0.00000E+00 0.00000E+00 2.00000E+01
 -1         3 0.00000E+00 2.00000E+01 0.00000E+00
 -1         4 0.00000E+00 2.00000E+01 2.00000E+01
 -1         5 1.00000E+02 0.00000E+00 0.00000E+00
 -1         6 1.00000E+02 0.00000E+00 2.00000E+01
 -1         7 1.00000E+02 2.00000E+01 0.00000E+00
 -1         8 1.00000E+02 2.00000E+01 2.00000E+01
 -1         9 0.00000E+00 0.00000E+00 1.00000E+01
 -1        10 0.00000E+00 1.00000E+01 0.00000E+00
 -1        11 0.00000E+00 2.00000E+01 1.00000E+01
 -1        12 0.00000E+00 1.00000E+01 2.00000E+01
 -1        13 1.00000E+02 0.00000E+00 1.00000E+01
 -1        14 1.00000E+02 1.00000E+01 0.00000E+00
 -1        15 1.00000E+02 2.00000E+01 1.00000E+01
 -1        16 1.00000E+02 1.00000E+01 2.00000E+01
 -1        17 1.00000E+01 0.00000E+00 0.00000E+00
 -1        18 2.00000E+01 0.00000E+00 0.00000E+00
 -1        19 3.00000E+01 0.00000E+00 0.00000E+00
 -1        20 4.00000E+01 0.00000E+00 0.00000E+00
 -1        21 5.00000E+01 0.00000E+00 0.00000E+00
 -1        22 6.00000E+01 0.00000E+00 0.00000E+00
 -1        23 7.00000E+01 0.00000E+00 0.00000E+00
 -1        24 8.00000E+01 0.00000E+00 0.00000E+00
 -1        25 9.00000E+01 0.00000E+00 0.00000E+00
 -1        26 1.00000E+01 0.00000E+00 2.00000E+01
 -1        27 2.00000E+01 0.00000E+00 2.00000E+01
 -1        28 3.00000E+01 0.00000E+00 2.00000E+01
 -1        29 4.00000E+01 0.00000E+00 2.00000E+01
 -1        30 5.00000E+01 0.00000E+00 2.00000E+01
 -1        31 6.00000E+01 0.00000E+00 2.00000E+01
 -1        32 7.00000E+01 0.00000E+00 2.00000E+01
 -1        33 8.00000E+01 0.00000E+00 2.00000E+01
 -1        34 9.00000E+01 0.00000E+00 2.00000E+01
 -1        35 1.00000E+01 2.00000E+01 0.00000E+00
 -1        36 2.00000E+01 2.00000E+01 0.00000E+00
 -1        37 3.00000E+01 2.00000E+01 0.00000E+00
 -1        38 4.00000E+01 2.00000E+01 0.00000E+00
 -1        39 5.00000E+01 2.00000E+01 0.00000E+00
 -1        40 6.00000E+01 2.00000E+01 0.00000E+00
 -1        41 7.00000E+01 2.00000E+01 0.00000E+00
 -1        42 8.00000E+01 2.00000E+01 0.00000E+00
 -1        43 9.00000E+01 2.00000E+01 0.00000E+00
 -1        44 1.00000E+01 2.00000E+01 2.00000E+01
 -1        45 2.00000E+01 2.00000E+01 2.00000E+01
 -1        46 3.00000E+01 2.00000E+01 2.00000E+01
 -1        47 4.00000E+01 2.00000E+01 2.00000E+01
 -1        48 5.00000E+01 2.00000E+01 2.00000E+01
 -1        49 6.00000E+01 2.00000E+01 2.00000E+01
 -1        50 7.00000E+01 2.00000E+01 2.00000E+01
 -1        51 8.00000E+01 2.00000E+01 2.00000E+01
 -1        52 9.00000E+01 2.00000E+01 2.00000E+01
 -1        53 0.00000E+00 5.87500E+00 1.41250E+01
 -1        54 0.00000E+00 7.50000E+00 7.50000E+00
 -1        55 0.00000E+00 1.29583E+01 1.28750E+01
 -1        56 0.00000E+00 1.43750E+01 5.62500E+00
 -1        57 1.00000E+02 5.87500E+00 1.41250E+01
 -1        58 1.00000E+02 7.50000E+00 7.50000E+00
 -1        59 1.00000E+02 1.29583E+01 1.28750E+01
 -1        60 1.00000E+02 1.43750E+01 5.62500E+00
 -1        61 3.50124E+01 0.00000E+00 9.55019E+00
 -1        62 6.49653E+01 0.00000E+00 9.61722E+00
 -1        63 1.50000E+01 0.00000E+00 1.13397E+01
 -1        64 8.50000E+01 0.00000E+00 1.13397E+01
 -1        65 4.49887E+01 0.00000E+00 1.05255E+01
 -1        66 5.49923E+01 0.00000E+00 1.00238E+01
 -1        67 2.50021E+01 0.00000E+00 1.01483E+01
 -1        68 7.49942E+01 0.00000E+00 1.01595E+01
 -1        69 9.34255E+01 0.00000E+00 7.33682E+00
 -1        70 6.57452E+00 0.00000E+00 7.33682E+00
 -1        71 5.79812E+00 0.00000E+00 1.42202E+01
 -1        72 9.42019E+01 0.00000E+00 1.42202E+01
 -1        73 3.50000E+01 2.00000E+01 9.54473E+00
 -1        74 6.49653E+01 2.00000E+01 9.61722E+00
 -1        75 1.50000E+01 2.00000E+01 8.66025E+00
 -1        76 8.50000E+01 2.00000E+01 1.13397E+01
 -1        77 4.49876E+01 2.00000E+01 1.05250E+01
 -1        78 2.50000E+01 2.00000E+01 1.03485E+01
 -1        79 5.49922E+01 2.00000E+01 1.00237E+01
 -1        80 7.49942E+01 2.00000E+01 1.01595E+01
 -1        81 9.34255E+01 2.00000E+01 7.33682E+00
 -1        82 6.57452E+00 2.00000E+01 1.26632E+01
 -1        83 5.79812E+00 2.00000E+01 5.77982E+00
 -1        84 9.42019E+01 2.00000E+01 1.42202E+01
 -1        85 3.49757E+01 9.98929E+00 0.00000E+00
 -1        86 5.50000E+01 9.86083E+00 0.00000E+00
 -1        87 7.50000E+01 9.86083E+00 0.00000E+00
 -1        88 1.50000E+01 1.13397E+01 0.00000E+00
 -1        89 8.50000E+01 1.10232E+01 0.00000E+00
 -1        90 4.49960E+01 9.97502E+00 0.00000E+00
 -1        91 6.50000E+01 9.95361E+00 0.00000E+00
 -1        92 2.49266E+01 9.58040E+00 0.00000E+00
 -1        93 6.57452E+00 7.33682E+00 0.00000E+00
 -1        94 9.34404E+01 7.26789E+00 0.00000E+00
 -1        95 9.40698E+01 1.40546E+01 0.00000E+00
 -1        96 5.79812E+00 1.42202E+01 0.00000E+00
 -1        97 3.50000E+01 9.54473E+00 2.00000E+01
 -1        98 5.50000E+01 9.86083E+00 2.00000E+01
 -1        99 7.50000E+01 9.86083E+00 2.00000E+01
 -1       100 1.50000E+01 8.66025E+00 2.00000E+01
 -1       101 8.50000E+01 1.10232E+01 2.00000E+01
 -1       102 4.50000E+01 1.02216E+01 2.00000E+01
 -1       103 2.50000E+01 1.05036E+01 2.00000E+01
 -1       104 6.50000E+01 9.95361E+00 2.00000E+01
 -1       105 6.57452E+00 1.26632E+01 2.00000E+01
 -1       106 9.34404E+01 7.26789E+00 2.00000E+01
 -1       107 9.40698E+01 1.40546E+01 2.00000E+01
 -1       108 5.79812E+00 5.77982E+00 2.00000E+01
 -1       109 8.98910E+01 1.01986E+01 1.02185E+01
 -1       110 9.92099E+00 1.02085E+01 1.02085E+01
 -1       111 6.00029E+01 9.59416E+00 1.04135E+01
 -3
    3C                           264                                     1
 -1       277    3    0    1
 -2        90        85        61        73
 -1       278    3    0    1
 -2        73        61        67        85
 -1       279    3    0    1
 -2        73        67        92        85
 -1       280    3    0    1
 -2        61        73        67        97
 -1       281    3    0    1
 -2        73        67        97       103
 -1       282    3    0    1
 -2        67        73        92       103
 -1       283    3    0    1
 -2        92       103        73        78
 -1       284    3    0    1
 -2        68        80        87       111
 -1       285    3    0    1
 -2        68        99        80       111
 -1       286    3    0    1
 -2        77       102        90       111
 -1       287    3    0    1
 -2        90       102        65       111
 -1       288    3    0    1
 -2        80        99        68       109
 -1       289    3    0    1
 -2        68        87        80       109
 -1       290    3    0    1
 -2        92        67       103       110
 -1       291    3    0    1
 -2       103        78        92       110
 -1       292    3    0    1
 -2        79        90        86       111
 -1       293    3    0    1
 -2        77        90        79       111
 -1       294    3    0    1
 -2        66        86        90       111
 -1       295    3    0    1
 -2        74        91        87       111
 -1       296    3    0    1
 -2        80        74        87       111
 -1       297    3    0    1
 -2        90        65        66       111
 -1       298    3    0    1
 -2       104        80        99       111
 -1       299    3    0    1
 -2        87        62        68       111
 -1       300    3    0    1
 -2        91        62        87       111
 -1       301    3    0    1
 -2        68       104        99       111
 -1       302    3    0    1
 -2        77        79        98       111
 -1       303    3    0    1
 -2        74        80       104       111
 -1       304    3    0    1
 -2        98       102        77       111
 -1       305    3    0    1
 -2        98        65       102       111
 -1       306    3    0    1
 -2        98        66        65       111
 -1       307    3    0    1
 -2        68        62       104       111
 -1       308    3    0    1
 -2        80        87        89       109
 -1       309    3    0    1
 -2       100       103        67       110
 -1       310    3    0    1
 -2        80       101        99       109
 -1       311    3    0    1
 -2        75        92        78       110
 -1       312    3    0    1
 -2        64        68        99       109
 -1       313    3    0    1
 -2        68        89        87       109
 -1       314    3    0    1
 -2        92        63        67       110
 -1       315    3    0    1
 -2       100        67        63       110
 -1       316    3    0    1
 -2        75        88        92       110
 -1       317    3    0    1
 -2        80        76       101       109
 -1       318    3    0    1
 -2        64        89        68       109
 -1       319    3    0    1
 -2        75        78       103       110
 -1       320    3    0    1
 -2        64        99       101       109
 -1       321    3    0    1
 -2        80        89        76       109
 -1       322    3    0    1
 -2        88        63        92       110
 -1       323    3    0    1
 -2       103       100        75       110
 -1       324    3    0    1
 -2        90        39        79        86
 -1       325    3    0    1
 -2        87        89        68        24
 -1       326    3    0    1
 -2        66        21        90        86
 -1       327    3    0    1
 -2        50        99       104        80
 -1       328    3    0    1
 -2        87        74        41        91
 -1       329    3    0    1
 -2        90        39        77        79
 -1       330    3    0    1
 -2        32       104        99        68
 -1       331    3    0    1
 -2        65        21        90        66
 -1       332    3    0    1
 -2        80        74        41        87
 -1       333    3    0    1
 -2        80       104        50        74
 -1       334    3    0    1
 -2        92        85        37        73
 -1       335    3    0    1
 -2        68        32       104        62
 -1       336    3    0    1
 -2        77        48        98        79
 -1       337    3    0    1
 -2        87        91        23        62
 -1       338    3    0    1
 -2        37        92        73        78
 -1       339    3    0    1
 -2        23        68        87        62
 -1       340    3    0    1
 -2        77        48       102        98
 -1       341    3    0    1
 -2        85        90        38        73
 -1       342    3    0    1
 -2       102        47        77        97
 -1       343    3    0    1
 -2        18        92        63        67
 -1       344    3    0    1
 -2        46        78        73       103
 -1       345    3    0    1
 -2        75        78        45       103
 -1       346    3    0    1
 -2        85        61        20        90
 -1       347    3    0    1
 -2       103        73        46        97
 -1       348    3    0    1
 -2        89        64        68        24
 -1       349    3    0    1
 -2        98        30        65        66
 -1       350    3    0    1
 -2        73        77        47        97
 -1       351    3    0    1
 -2        30        65       102        98
 -1       352    3    0    1
 -2        73        90        38        77
 -1       353    3    0    1
 -2        90        61        20        65
 -1       354    3    0    1
 -2        28        67       103        97
 -1       355    3    0    1
 -2        61        67        28        97
 -1       356    3    0    1
 -2        45        75       103       100
 -1       357    3    0    1
 -2        18        92        88        63
 -1       358    3    0    1
 -2        51       101        99        80
 -1       359    3    0    1
 -2        29       102        65        97
 -1       360    3    0    1
 -2        29        65        61        97
 -1       361    3    0    1
 -2        75        92        36        78
 -1       362    3    0    1
 -2        89        80        42        87
 -1       363    3    0    1
 -2       101        51        76        80
 -1       364    3    0    1
 -2        27       100       103        67
 -1       365    3    0    1
 -2        36        88        92        75
 -1       366    3    0    1
 -2        64        99        68        33
 -1       367    3    0    1
 -2        76        80        42        89
 -1       368    3    0    1
 -2       100        27        63        67
 -1       369    3    0    1
 -2        33        64        99       101
 -1       370    3    0    1
 -2        96        35        83       110
 -1       371    3    0    1
 -2        26        71       108       110
 -1       372    3    0    1
 -2        40        79        86       111
 -1       373    3    0    1
 -2        84       107        52       109
 -1       374    3    0    1
 -2        69        94        25       109
 -1       375    3    0    1
 -2        40        91        74       111
 -1       376    3    0    1
 -2        93        70        17       110
 -1       377    3    0    1
 -2        96        56        93       110
 -1       378    3    0    1
 -2        86        91        40       111
 -1       379    3    0    1
 -2        88        17        63       110
 -1       380    3    0    1
 -2        86        66        22       111
 -1       381    3    0    1
 -2        49        74       104       111
 -1       382    3    0    1
 -2        64        25        89       109
 -1       383    3    0    1
 -2        57        69        72       109
 -1       384    3    0    1
 -2        49        98        79       111
 -1       385    3    0    1
 -2        64        69        25       109
 -1       386    3    0    1
 -2        89        25        94       109
 -1       387    3    0    1
 -2        44        75       100       110
 -1       388    3    0    1
 -2        70        63        17       110
 -1       389    3    0    1
 -2        93        17        88       110
 -1       390    3    0    1
 -2        60        95        58       109
 -1       391    3    0    1
 -2        72        34       106       109
 -1       392    3    0    1
 -2        40        74        79       111
 -1       393    3    0    1
 -2        43        95        81       109
 -1       394    3    0    1
 -2        75        45        44       100
 -1       395    3    0    1
 -2        17        18        88        63
 -1       396    3    0    1
 -2        83        82        56       110
 -1       397    3    0    1
 -2        60        81        95       109
 -1       398    3    0    1
 -2        22        62        91       111
 -1       399    3    0    1
 -2        71        70        53       110
 -1       400    3    0    1
 -2       106        34       101       109
 -1       401    3    0    1
 -2        64        89        25        24
 -1       402    3    0    1
 -2        47        46        73        97
 -1       403    3    0    1
 -2       104        62        31       111
 -1       404    3    0    1
 -2        35        96        88       110
 -1       405    3    0    1
 -2        63        71        26       110
 -1       406    3    0    1
 -2        43        81        76       109
 -1       407    3    0    1
 -2        35        75        83       110
 -1       408    3    0    1
 -2        26       108       100       110
 -1       409    3    0    1
 -2        92        37        36        78
 -1       410    3    0    1
 -2        56        82        55       110
 -1       411    3    0    1
 -2        22        91        86       111
 -1       412    3    0    1
 -2        83        56        96       110
 -1       413    3    0    1
 -2        93        56        54       110
 -1       414    3    0    1
 -2       106        57        72       109
 -1       415    3    0    1
 -2        98        31        66       111
 -1       416    3    0    1
 -2        57        58        69       109
 -1       417    3    0    1
 -2       104        49        50        74
 -1       418    3    0    1
 -2       108        53       105       110
 -1       419    3    0    1
 -2        49        79        74       111
 -1       420    3    0    1
 -2        90        39        38        77
 -1       421    3    0    1
 -2       107       101        52       109
 -1       422    3    0    1
 -2        81        60        59       109
 -1       423    3    0    1
 -2        49        98        48        79
 -1       424    3    0    1
 -2        32        31       104        62
 -1       425    3    0    1
 -2        40        79        39        86
 -1       426    3    0    1
 -2        90        20        21        65
 -1       427    3    0    1
 -2        71        53       108       110
 -1       428    3    0    1
 -2        44        82        75       110
 -1       429    3    0    1
 -2        44       100       105       110
 -1       430    3    0    1
 -2       105        53        55       110
 -1       431    3    0    1
 -2        57       106        59       109
 -1       432    3    0    1
 -2        54        53        70       110
 -1       433    3    0    1
 -2       103        27        67        28
 -1       434    3    0    1
 -2        99        50        51        80
 -1       435    3    0    1
 -2        49       104        98       111
 -1       436    3    0    1
 -2        86        66        21        22
 -1       437    3    0    1
 -2        66        62        22       111
 -1       438    3    0    1
 -2        84        52        76       109
 -1       439    3    0    1
 -2        30        98        31        66
 -1       440    3    0    1
 -2        41        42        80        87
 -1       441    3    0    1
 -2        82        44       105       110
 -1       442    3    0    1
 -2        94        58        95       109
 -1       443    3    0    1
 -2        40        41        74        91
 -1       444    3    0    1
 -2        91        22        23        62
 -1       445    3    0    1
 -2        89        95        43       109
 -1       446    3    0    1
 -2        23        87        68        24
 -1       447    3    0    1
 -2        28        29        61        97
 -1       448    3    0    1
 -2        43        76        89       109
 -1       449    3    0    1
 -2        30       102        65        29
 -1       450    3    0    1
 -2        72        64        34       109
 -1       451    3    0    1
 -2        66        31        62       111
 -1       452    3    0    1
 -2        61        20        19        85
 -1       453    3    0    1
 -2        98       104        31       111
 -1       454    3    0    1
 -2        94        69        58       109
 -1       455    3    0    1
 -2        99        32        68        33
 -1       456    3    0    1
 -2        85        38        37        73
 -1       457    3    0    1
 -2        64       101        34       109
 -1       458    3    0    1
 -2        59       106       107       109
 -1       459    3    0    1
 -2        35        88        75       110
 -1       460    3    0    1
 -2        26       100        63       110
 -1       461    3    0    1
 -2        59       107        84       109
 -1       462    3    0    1
 -2        92        18        19        67
 -1       463    3    0    1
 -2        10        93        96        56
 -1       464    3    0    1
 -2        56        83        11        82
 -1       465    3    0    1
 -2        59        84        81       109
 -1       466    3    0    1
 -2        93        54        70       110
 -1       467    3    0    1
 -2        55        56        11        82
 -1       468    3    0    1
 -2        48        47        77       102
 -1       469    3    0    1
 -2       101        76        52       109
 -1       470    3    0    1
 -2         4        55        82       105
 -1       471    3    0    1
 -2        82       105        55       110
 -1       472    3    0    1
 -2        93        10        54        56
 -1       473    3    0    1
 -2        60        58        59       109
 -1       474    3    0    1
 -2        54        70         1        93
 -1       475    3    0    1
 -2        70         9        71        53
 -1       476    3    0    1
 -2       108        12       105        53
 -1       477    3    0    1
 -2        72        57        13        69
 -1       478    3    0    1
 -2        12        55       105        53
 -1       479    3    0    1
 -2        58        94         5        69
 -1       480    3    0    1
 -2        43        76        42        89
 -1       481    3    0    1
 -2       106        16        57        59
 -1       482    3    0    1
 -2        60        59        15        81
 -1       483    3    0    1
 -2        46        45        78       103
 -1       484    3    0    1
 -2        54        56        55       110
 -1       485    3    0    1
 -2        58        13        57        69
 -1       486    3    0    1
 -2         9        70        54        53
 -1       487    3    0    1
 -2        64        33        34       101
 -1       488    3    0    1
 -2        57        59        58       109
 -1       489    3    0    1
 -2        89        94        95       109
 -1       490    3    0    1
 -2        72        69        64       109
 -1       491    3    0    1
 -2        93        88        96       110
 -1       492    3    0    1
 -2        63        70        71       110
 -1       493    3    0    1
 -2         7        60        81        95
 -1       494    3    0    1
 -2        55        53        54       110
 -1       495    3    0    1
 -2        16       106       107        59
 -1       496    3    0    1
 -2       101       107       106       109
 -1       497    3    0    1
 -2         6        57        72       106
 -1       498    3    0    1
 -2        76        81        84       109
 -1       499    3    0    1
 -2        75        82        83       110
 -1       500    3    0    1
 -2       100       108       105       110
 -1       501    3    0    1
 -2        55         4        12       105
 -1       502    3    0    1
 -2        58         5        13        69
 -1       503    3    0    1
 -2        70         1         9        54
 -1       504    3    0    1
 -2         1        10        54        93
 -1       505    3    0    1
 -2         5        14        94        58
 -1       506    3    0    1
 -2        11         4        55        82
 -1       507    3    0    1
 -2        59        84        15        81
 -1       508    3    0    1
 -2       101        51        52        76
 -1       509    3    0    1
 -2        15         7        60        81
 -1       510    3    0    1
 -2        57         6        16       106
 -1       511    3    0    1
 -2        84         8       107        59
 -1       512    3    0    1
 -2        36        35        88        75
 -1       513    3    0    1
 -2        27        26       100        63
 -1       514    3    0    1
 -2         8        16       107        59
 -1       515    3    0    1
 -2        44         4        82       105
 -1       516    3    0    1
 -2        15         8        84        59
 -1       517    3    0    1
 -2        70        17         1        93
 -1       518    3    0    1
 -2         7        60        95        14
 -1       519    3    0    1
 -2        94         5        69        25
 -1       520    3    0    1
 -2        83        11         3        56
 -1       521    3    0    1
 -2         3        10        96        56
 -1       522    3    0    1
 -2         2        12       108        53
 -1       523    3    0    1
 -2        71         9         2        53
 -1       524    3    0    1
 -2        57        13         6        72
 -1       525    3    0    1
 -2        71         2       108        53
 -1       526    3    0    1
 -2        83         3        96        56
 -1       527    3    0    1
 -2        43         7        81        95
 -1       528    3    0    1
 -2        34         6        72       106
 -1       529    3    0    1
 -2         3        96        35        83
 -1       530    3    0    1
 -2         2       108        26        71
 -1       531    3    0    1
 -2         8       107        52        84
 -1       532    3    0    1
 -2        73        90        97        61
 -1       533    3    0    1
 -2        65        90        97       102
 -1       534    3    0    1
 -2        65        97        90        61
 -1       535    3    0    1
 -2        97        77        90        73
 -1       536    3    0    1
 -2        97        90        77       102
 -1       537    3    0    1
 -2        67        85        19        92
 -1       538    3    0    1
 -2        67        19        85        61
 -1       539    3    0    1
 -2        58        95        14        94
 -1       540    3    0    1
 -2        58        14        95        60
 -3
 9999
